REMARK  Name = 
REMARK  40 active torsions:
REMARK  status: ('A' for Active; 'I' for Inactive)
REMARK    1  A    between atoms: C_1  and  C_2
REMARK    2  A    between atoms: C_2  and  C_3
REMARK    3  A    between atoms: C_3  and  C_4
REMARK    4  A    between atoms: C_4  and  C_5
REMARK    5  A    between atoms: C_5  and  C_6
REMARK    6  A    between atoms: C_6  and  C_7
REMARK    7  A    between atoms: C_7  and  C_8
REMARK    8  A    between atoms: C_8  and  C_9
REMARK    9  A    between atoms: C_9  and  C_10
REMARK   10  A    between atoms: C_10  and  C_11
REMARK   11  A    between atoms: C_11  and  C_12
REMARK   12  A    between atoms: C_12  and  C_13
REMARK   13  A    between atoms: C_13  and  C_14
REMARK   14  A    between atoms: C_14  and  C_15
REMARK   15  A    between atoms: C_15  and  C_16
REMARK   16  A    between atoms: C_15  and  O_50
REMARK   17  A    between atoms: N_18  and  C_19
REMARK   18  A    between atoms: C_19  and  C_20
REMARK   19  A    between atoms: C_19  and  C_33
REMARK   20  A    between atoms: C_20  and  O_21
REMARK   21  A    between atoms: O_21  and  C_22
REMARK   22  A    between atoms: C_23  and  O_32
REMARK   23  A    between atoms: C_24  and  O_31
REMARK   24  A    between atoms: C_25  and  O_30
REMARK   25  A    between atoms: C_26  and  C_28
REMARK   26  A    between atoms: C_28  and  O_29
REMARK   27  A    between atoms: C_33  and  C_34
REMARK   28  A    between atoms: C_33  and  O_49
REMARK   29  A    between atoms: C_35  and  C_36
REMARK   30  A    between atoms: C_36  and  C_37
REMARK   31  A    between atoms: C_37  and  C_38
REMARK   32  A    between atoms: C_39  and  C_40
REMARK   33  A    between atoms: C_40  and  C_41
REMARK   34  A    between atoms: C_41  and  C_42
REMARK   35  A    between atoms: C_42  and  C_43
REMARK   36  A    between atoms: C_43  and  C_44
REMARK   37  A    between atoms: C_44  and  C_45
REMARK   38  A    between atoms: C_45  and  C_46
REMARK   39  A    between atoms: C_46  and  C_47
REMARK   40  A    between atoms: C_47  and  C_48
REMARK                            x       y       z     vdW  Elec       q    Type
REMARK                         _______ _______ _______ _____ _____    ______ ____
ROOT
ATOM      1  C   UNL     1       0.238   0.329  -1.327  0.00  0.00    +0.076 C 
ENDROOT
BRANCH   1   4
ATOM      2  C   UNL     1      -1.669   1.725  -0.549  0.00  0.00    +0.242 C 
ATOM      3  O   UNL     1      -1.970   2.078  -1.685  0.00  0.00    -0.273 OA
ATOM      4  N   UNL     1      -0.654   0.833  -0.272  0.00  0.00    -0.305 N 
ATOM      5  H   UNL     1      -0.523   0.525   0.654  0.00  0.00    +0.000 HD
BRANCH   2   6
ATOM      6  C   UNL     1      -2.396   2.231   0.706  0.00  0.00    +0.131 C 
BRANCH   6   7
ATOM      7  O   UNL     1      -1.411   2.603   1.680  0.00  0.00    -0.383 OA
ATOM      8  H   UNL     1      -0.876   1.827   1.910  0.00  0.00    +0.000 HD
ENDBRANCH   6   7
BRANCH   6   9
ATOM      9  C   UNL     1      -3.286   1.152   1.327  0.00  0.00    -0.018 C 
BRANCH   9  10
ATOM     10  C   UNL     1      -4.482   0.795   0.442  0.00  0.00    -0.050 C 
BRANCH  10  11
ATOM     11  C   UNL     1      -5.347  -0.335   1.010  0.00  0.00    -0.053 C 
BRANCH  11  12
ATOM     12  C   UNL     1      -6.091   0.053   2.290  0.00  0.00    -0.053 C 
BRANCH  12  13
ATOM     13  C   UNL     1      -6.963  -1.075   2.852  0.00  0.00    -0.053 C 
BRANCH  13  14
ATOM     14  C   UNL     1      -8.086  -1.572   1.936  0.00  0.00    -0.053 C 
BRANCH  14  15
ATOM     15  C   UNL     1      -9.061  -0.502   1.433  0.00  0.00    -0.053 C 
BRANCH  15  16
ATOM     16  C   UNL     1      -9.810   0.213   2.562  0.00  0.00    -0.053 C 
BRANCH  16  17
ATOM     17  C   UNL     1     -10.816   1.254   2.058  0.00  0.00    -0.053 C 
BRANCH  17  18
ATOM     18  C   UNL     1     -12.045   0.699   1.328  0.00  0.00    -0.053 C 
BRANCH  18  19
ATOM     19  C   UNL     1     -13.271   0.461   2.219  0.00  0.00    -0.053 C 
BRANCH  19  20
ATOM     20  C   UNL     1     -13.141  -0.627   3.286  0.00  0.00    -0.053 C 
BRANCH  20  22
ATOM     21  C   UNL     1     -12.827  -3.072   3.803  0.00  0.00    -0.065 C 
ATOM     22  C   UNL     1     -12.887  -2.019   2.707  0.00  0.00    -0.056 C 
ENDBRANCH  20  22
ENDBRANCH  19  20
ENDBRANCH  18  19
ENDBRANCH  17  18
ENDBRANCH  16  17
ENDBRANCH  15  16
ENDBRANCH  14  15
ENDBRANCH  13  14
ENDBRANCH  12  13
ENDBRANCH  11  12
ENDBRANCH  10  11
ENDBRANCH   9  10
ENDBRANCH   6   9
ENDBRANCH   2   6
ENDBRANCH   1   4
BRANCH   1  23
ATOM     23  C   UNL     1       0.919  -0.997  -0.885  0.00  0.00    +0.094 C 
BRANCH  23  24
ATOM     24  C   UNL     1       1.902  -0.830   0.251  0.00  0.00    -0.058 C 
ATOM     25  C   UNL     1       1.861  -1.415   1.459  0.00  0.00    -0.085 C 
BRANCH  25  26
ATOM     26  C   UNL     1       2.862  -1.276   2.580  0.00  0.00    -0.031 C 
BRANCH  26  27
ATOM     27  C   UNL     1       4.056  -0.321   2.401  0.00  0.00    -0.031 C 
BRANCH  27  28
ATOM     28  C   UNL     1       5.089  -0.814   1.422  0.00  0.00    -0.088 C 
ATOM     29  C   UNL     1       5.567  -0.080   0.404  0.00  0.00    -0.088 C 
BRANCH  29  30
ATOM     30  C   UNL     1       6.586  -0.576  -0.584  0.00  0.00    -0.035 C 
BRANCH  30  31
ATOM     31  C   UNL     1       7.840   0.302  -0.643  0.00  0.00    -0.050 C 
BRANCH  31  32
ATOM     32  C   UNL     1       8.644   0.385   0.659  0.00  0.00    -0.053 C 
BRANCH  32  33
ATOM     33  C   UNL     1       9.156  -0.952   1.207  0.00  0.00    -0.053 C 
BRANCH  33  34
ATOM     34  C   UNL     1      10.037  -1.764   0.253  0.00  0.00    -0.053 C 
BRANCH  34  35
ATOM     35  C   UNL     1      11.287  -1.049  -0.270  0.00  0.00    -0.053 C 
BRANCH  35  36
ATOM     36  C   UNL     1      12.255  -0.629   0.838  0.00  0.00    -0.053 C 
BRANCH  36  37
ATOM     37  C   UNL     1      13.532  -0.021   0.256  0.00  0.00    -0.056 C 
ATOM     38  C   UNL     1      14.497   0.403   1.351  0.00  0.00    -0.065 C 
ENDBRANCH  36  37
ENDBRANCH  35  36
ENDBRANCH  34  35
ENDBRANCH  33  34
ENDBRANCH  32  33
ENDBRANCH  31  32
ENDBRANCH  30  31
ENDBRANCH  29  30
ENDBRANCH  27  28
ENDBRANCH  26  27
ENDBRANCH  25  26
ENDBRANCH  23  24
BRANCH  23  39
ATOM     39  O   UNL     1      -0.095  -1.940  -0.515  0.00  0.00    -0.386 OA
ATOM     40  H   UNL     1      -0.595  -1.597   0.241  0.00  0.00    +0.000 HD
ENDBRANCH  23  39
ENDBRANCH   1  23
BRANCH   1  41
ATOM     41  C   UNL     1       1.237   1.410  -1.780  0.00  0.00    +0.072 C 
BRANCH  41  42
ATOM     42  O   UNL     1       2.109   0.884  -2.781  0.00  0.00    -0.347 OA
BRANCH  42  43
ATOM     43  C   UNL     1       3.041   1.859  -3.248  0.00  0.00    +0.188 C 
ATOM     44  C   UNL     1       4.251   1.170  -3.925  0.00  0.00    +0.134 C 
ATOM     45  C   UNL     1       4.002   0.904  -5.420  0.00  0.00    +0.114 C 
ATOM     46  C   UNL     1       2.510   0.857  -5.732  0.00  0.00    +0.112 C 
ATOM     47  C   UNL     1       1.875   2.203  -5.331  0.00  0.00    +0.113 C 
ATOM     48  O   UNL     1       2.413   2.787  -4.135  0.00  0.00    -0.341 OA
BRANCH  45  49
ATOM     49  O   UNL     1       4.610  -0.335  -5.816  0.00  0.00    -0.386 OA
ATOM     50  H   UNL     1       4.210  -1.065  -5.317  0.00  0.00    +0.000 HD
ENDBRANCH  45  49
BRANCH  46  51
ATOM     51  O   UNL     1       2.336   0.597  -7.133  0.00  0.00    -0.386 OA
ATOM     52  H   UNL     1       2.767   1.297  -7.648  0.00  0.00    +0.000 HD
ENDBRANCH  46  51
BRANCH  44  53
ATOM     53  O   UNL     1       5.424   2.000  -3.781  0.00  0.00    -0.384 OA
ATOM     54  H   UNL     1       5.275   2.850  -4.224  0.00  0.00    +0.000 HD
ENDBRANCH  44  53
BRANCH  47  55
ATOM     55  C   UNL     1       0.346   2.089  -5.244  0.00  0.00    +0.073 C 
BRANCH  55  56
ATOM     56  O   UNL     1      -0.187   1.604  -6.476  0.00  0.00    -0.392 OA
ATOM     57  H   UNL     1       0.038   2.220  -7.191  0.00  0.00    +0.000 HD
ENDBRANCH  55  56
ENDBRANCH  47  55
ENDBRANCH  42  43
ENDBRANCH  41  42
ENDBRANCH   1  41
TORSDOF 38
